38
	Energy: -647987.8770234
O         -1.04480        0.92441        0.54698
O          0.90700       -0.24205        0.70289
O         -3.17079       -2.51063       -0.23949
O         -4.35892        0.02068       -0.62097
O         -0.32867       -2.51468       -0.43442
O         -2.10769        3.44528        0.40366
O          2.48525       -2.59795        0.06567
C         -2.38311       -1.36244       -0.47333
C         -3.14577       -0.16798        0.07017
C         -1.02128       -1.46171        0.18461
C         -2.30590        1.09374       -0.10089
C         -0.29592       -0.13560        0.00617
C         -2.94253        2.31615        0.53086
C          2.00571        0.40466        0.20579
C          3.21715       -0.28586        0.31876
C          1.94362        1.66989       -0.36308
C          4.37620        0.33081       -0.13937
C          3.21218       -1.68123        0.88625
C          3.11695        2.26098       -0.82665
C          4.33391        1.60097       -0.71053
H         -2.23743       -1.22416       -1.55557
H         -3.33125       -0.33194        1.14192
H         -1.14248       -1.63610        1.26282
H         -2.14417        1.28206       -1.17238
H         -0.09546        0.04828       -1.06101
H         -3.15724        2.10112        1.58570
H         -3.87919        2.54184        0.02348
H         -2.66570       -3.28425       -0.51729
H         -4.81976       -0.82696       -0.64366
H          0.57982       -2.57378       -0.08828
H         -1.27988        3.24726        0.85622
H          0.99229        2.18646       -0.42803
H          5.32334       -0.19359       -0.05329
H          4.23873       -2.03480        1.02250
H          2.71054       -1.70879        1.85298
H          3.07450        3.24881       -1.27112
H          5.24474        2.06877       -1.06469
H          2.87033       -2.60497       -0.81733
