5
	Energy: -647987.8770234
O         -1.04480        0.92441        0.54698
O          0.90700       -0.24205        0.70289
O         -3.17079       -2.51063       -0.23949
O         -4.35892        0.02068       -0.62097
O         -0.32867       -2.51468       -0.43442


